 Gaussian 09, Revision D.01,
 Gaussian 09:  EM64L-G09RevD.01 24-Apr-2013

 ---------------------------------------------------
 #p SP B3LYP/gen pseudo=read nosym geom=connectivity
 ---------------------------------------------------

 ------------------------
 Single Point Calculation
 ------------------------
 Symbolic Z-matrix:
 Charge =  0 Multiplicity = 1

                          Input orientation:
 ---------------------------------------------------------------------
 Center     Atomic      Atomic             Coordinates (Angstroms)
 Number     Number       Type             X           Y           Z
 ---------------------------------------------------------------------
      1          6           0       -1.751581   -1.847499    0.001199
      2          6           0       -0.356421   -1.847499    0.001199
      3          6           0        0.341118   -0.639748    0.001199
      4          6           0       -0.356537    0.568761    0.000000
      5          6           0       -1.751362    0.568683   -0.000479
      6          6           0       -2.448963   -0.639523    0.000517
      7          1           0       -2.301340   -2.799816    0.001649
      8          1           0        0.193088   -2.800012    0.002514
      9          1           0        0.193664    1.520904   -0.000059
     10          1           0       -2.301484    1.520964   -0.001432
     11          1           0       -3.548567   -0.639340    0.000337
     12         53           0        2.441117   -0.639596    0.002410
 ---------------------------------------------------------------------

 SCF Done:  E(RB3LYP) =  -243.020233011     A.U. after   15 cycles

 Alpha  occ. eigenvalues --  -10.23591 -10.20061 -10.20056 -10.19782 -10.19778
 Alpha  occ. eigenvalues --  -10.19540  -0.86734  -0.76950  -0.75617  -0.67965
 Alpha  occ. eigenvalues --   -0.61539  -0.59288  -0.51885  -0.46153  -0.45920
 Alpha  occ. eigenvalues --   -0.43113  -0.40829  -0.38256  -0.35673  -0.34067
 Alpha  occ. eigenvalues --   -0.29647  -0.26739  -0.26186  -0.23768
 Alpha virt. eigenvalues --   -0.02564  -0.01290  -0.01122   0.09436   0.13128
 Alpha virt. eigenvalues --    0.14716   0.15237   0.17544   0.17651   0.27839
 Alpha virt. eigenvalues --    0.27989   0.29742   0.30194   0.36676   0.39003

 Mulliken charges:
               1
     1  C   -0.119291
     2  C   -0.082140
     3  C   -0.336687
     4  C   -0.082155
     5  C   -0.119298
     6  C   -0.130263
     7  H    0.139380
     8  H    0.147360
     9  H    0.147378
    10  H    0.139375
    11  H    0.135904
    12  I    0.160438
 Sum of Mulliken charges =   0.00000

 Dipole moment (field-independent basis, Debye):
    X=             -1.6776    Y=             -0.0002    Z=             -0.0003  Tot=              1.6776
 Quadrupole moment (field-independent basis, Debye-Ang):
   XX=            -50.8187   YY=            -49.9795   ZZ=            -58.5296
   XY=              1.0738   XZ=              0.0009   YZ=             -0.0057

 Normal termination of Gaussian 09 at Tue Jan 29 13:52:50 2019.
