 Gaussian 09, Revision D.01,

 ----------------------------------------------------
 #p opt B3LYP/gen pseudo=read nosym geom=connectivity
 ----------------------------------------------------

 ---
 Opt
 ---
 Symbolic Z-matrix:
 Charge =  0 Multiplicity = 1

 SCF Done:  E(RB3LYP) =  -243.020233011     A.U. after   15 cycles
 SCF Done:  E(RB3LYP) =  -243.021431269     A.U. after   12 cycles
 SCF Done:  E(RB3LYP) =  -243.021489779     A.U. after    9 cycles
 SCF Done:  E(RB3LYP) =  -243.021493976     A.U. after    8 cycles
 Optimization completed.
    -- Stationary point found.
 Normal termination of Gaussian 09 at Tue Jan 29 13:53:21 2019.
 Gaussian 09:  EM64L-G09RevD.01 24-Apr-2013

 ----------------------------------------------------------
 #p TD=(50-50,nstates=5) B3LYP/chkbas geom=check guess=read
 ----------------------------------------------------------

 ---------------------------------------------------------
 TD-DFT at previous geom (S0?) using S0 as reference state
 ---------------------------------------------------------
 Structure from the checkpoint file:  "Phenyl-Iodide2-TD.chk"
 Charge =  0 Multiplicity = 1

                         Standard orientation:
 ---------------------------------------------------------------------
 Center     Atomic      Atomic             Coordinates (Angstroms)
 Number     Number       Type             X           Y           Z
 ---------------------------------------------------------------------
      1          6           0       -2.661495    1.207117   -0.000002
      2          6           0       -1.263942    1.215638    0.000016
      3          6           0       -0.581017    0.000023    0.000026
      4          6           0       -1.263928   -1.215626    0.000017
      5          6           0       -2.661455   -1.207140   -0.000006
      6          6           0       -3.362046   -0.000009   -0.000015
      7          1           0       -3.198577    2.151889   -0.000018
      8          1           0       -0.722567    2.155406    0.000021
      9          1           0       -0.722501   -2.155366    0.000027
     10          1           0       -3.198553   -2.151904   -0.000017
     11          1           0       -4.448308   -0.000041   -0.000033
     12         53           0        1.567053    0.000000   -0.000004
 ---------------------------------------------------------------------

 SCF Done:  E(RB3LYP) =  -243.021493976     A.U. after    2 cycles

 Excitation energies and oscillator strengths:

 Excited State   1:      Triplet-A      3.7020 eV  334.91 nm  f=0.0000  <S**2>=2.000
      18 -> 30         0.10508
      21 -> 26        -0.24319
      23 -> 27         0.45505
      24 -> 26         0.48900
 This state for optimization and/or second-order correction.
 Total Energy, E(TD-HF/TD-KS) =  -242.885447762
 Copying the excited state density for this state as the 1-particle RhoCI density.

 Excited State   2:      Triplet-A      3.9853 eV  311.10 nm  f=0.0000  <S**2>=2.000
      24 -> 25         0.70138

 Excited State   3:      Singlet-A      4.5378 eV  273.23 nm  f=0.0016  <S**2>=0.000
      24 -> 25         0.70605

 Excited State   4:      Triplet-A      4.5381 eV  273.21 nm  f=0.0000  <S**2>=2.000
      22 -> 25         0.70133

 Excited State   5:      Triplet-A      4.5931 eV  269.94 nm  f=0.0000  <S**2>=2.000
      21 -> 27        -0.18882
      23 -> 26         0.31059
      24 -> 27         0.60077

 Excited State   6:      Triplet-A      4.6627 eV  265.90 nm  f=0.0000  <S**2>=2.000
      21 -> 26         0.13463
      23 -> 27         0.54150
      24 -> 26        -0.43468

 Excited State   7:      Singlet-A      5.2165 eV  237.68 nm  f=0.0000  <S**2>=0.000
      23 -> 25         0.70682

 Excited State   8:      Singlet-A      5.2425 eV  236.50 nm  f=0.0016  <S**2>=0.000
      22 -> 25         0.27904
      23 -> 26        -0.33975
      24 -> 27         0.55097

 Excited State   9:      Singlet-A      5.2771 eV  234.95 nm  f=0.0032  <S**2>=0.000
      22 -> 25         0.64965
      23 -> 26         0.14072
      24 -> 27        -0.24046

 Excited State  10:      Singlet-A      5.6843 eV  218.12 nm  f=0.1226  <S**2>=0.000
      21 -> 26         0.11771
      23 -> 27         0.17771
      24 -> 26         0.67068

 The electronic state is 1-A.
 Alpha  occ. eigenvalues --  -10.23926 -10.20083 -10.20083 -10.19800 -10.19796
 Alpha  occ. eigenvalues --  -10.19536  -0.86767  -0.76709  -0.75851  -0.67667
 Alpha  occ. eigenvalues --   -0.61800  -0.59562  -0.52247  -0.46329  -0.46176
 Alpha  occ. eigenvalues --   -0.43490  -0.40904  -0.38237  -0.36071  -0.33722
 Alpha  occ. eigenvalues --   -0.29379  -0.26601  -0.26279  -0.23914
 Alpha virt. eigenvalues --   -0.03337  -0.01340  -0.01302   0.09742   0.13441
 Alpha virt. eigenvalues --    0.14594   0.15431   0.17748   0.17825   0.27901
 Alpha virt. eigenvalues --    0.28301   0.29521   0.29965   0.36476   0.39183

 Mulliken charges:
               1
     1  C   -0.124755
     2  C   -0.081186
     3  C   -0.308495
     4  C   -0.081175
     5  C   -0.124755
     6  C   -0.124328
     7  H    0.139581
     8  H    0.150737
     9  H    0.150737
    10  H    0.139581
    11  H    0.137361
    12  I    0.126697
 Sum of Mulliken charges =   0.00000

 Dipole moment (field-independent basis, Debye):
    X=             -1.8621    Y=              0.0000    Z=              0.0000  Tot=              1.8621
 Quadrupole moment (field-independent basis, Debye-Ang):
   XX=            -47.7358   YY=            -49.7922   ZZ=            -58.5598
   XY=              0.0000   XZ=              0.0001   YZ=              0.0000

 Normal termination of Gaussian 09 at Tue Jan 29 13:54:26 2019.
